# Force coefficients
# liftDir    : (0.000000e+00 1.000000e+00 0.000000e+00)
# dragDir    : (0.000000e+00 0.000000e+00 -1.000000e+00)
# pitchAxis  : (1.000000e+00 0.000000e+00 0.000000e+00)
# magUInf    : 1.500000e+01
# lRef       : 6.700000e-02
# Aref       : 3.631700e-03
# CofR       : (0.000000e+00 0.000000e+00 0.000000e+00)
# Time       	Cm           	Cd           	Cl           	Cl(f)        	Cl(r)        	Cm	Cd	Cl	Cl(f)	Cl(r)
1.135000e+03	-7.638957e-01	5.379165e-01	3.320588e-01	-5.978663e-01	9.299251e-01
